/*--------------------------------*- C++ -*----------------------------------*\
| =========                 |                                                 |
| \\      /  F ield         | OpenFOAM: The Open Source CFD Toolbox           |
|  \\    /   O peration     | Version:  v1912                                 |
|   \\  /    A nd           | Website:  www.openfoam.com                      |
|    \\/     M anipulation  |                                                 |
\*---------------------------------------------------------------------------*/
FoamFile
{
    version     2.0;
    format      ascii;
    class       polyBoundaryMesh;
    location    "constant/polyMesh";
    object      boundary;
}
// * * * * * * * * * * * * * * * * * * * * * * * * * * * * * * * * * * * * * //

4
(
    Back
    {
        type            empty;
        nFaces          9280;
        startFace       13646;
    }
    Inner
    {
        type            wall;
        nFaces          122;
        startFace       22926;
    }
    Outer
    {
        type            wall;
        nFaces          426;
        startFace       23048;
    }
    Front
    {
        type            empty;
        nFaces          9280;
        startFace       23474;
    }
)

// ************************************************************************* //
